 20
 step 0 xyz coordinates optimized in h13o6_2_scan.log
		O       0.000000       0.000000       0.000000
		H       0.989000       0.000000       0.000000
		H      -0.368000       0.821000       0.411000
		H      -0.368000      -0.818000       0.417000
		O       2.800000       0.000000       0.000000
		H       3.400000      -0.763000       0.000000
		H       3.400000       0.763000       0.000000
		O      -2.000000      -2.000000       0.000000
		H      -2.900000      -1.800000       0.300000
		H      -1.800000      -2.900000       0.300000
		O      -2.000000       2.000000       0.000000
		H      -2.900000       1.800000       0.300000
		H      -1.800000       2.900000       0.300000
		O       4.800000      -2.000000       0.000000
		H       5.700000      -1.800000      -0.300000
		H       4.600000      -2.900000      -0.300000
		O       4.800000       2.000000       0.000000
		H       5.700000       1.800000      -0.300000
		H       4.600000       2.900000      -0.300000
		p+       0.000000       0.000000       0.000000
 20
 step 1 xyz coordinates optimized in h13o6_2_scan.log
		O       0.000000       0.000000       0.000000
		H       1.006426       0.001410      -0.003383
		H      -0.360361       0.818276       0.429403
		H      -0.357907      -0.815848       0.435865
		O       2.817425       0.000021      -0.002717
		H       3.407498      -0.781326       0.001704
		H       3.408749       0.780421       0.001767
		O      -1.889426      -2.009630       0.141433
		H      -2.778205      -1.852455       0.493598
		H      -1.665615      -2.913895       0.410905
		O      -1.894793       2.004514       0.139302
		H      -2.783161       1.844766       0.491337
		H      -1.673774       2.909660       0.408133
		O       4.758027      -2.055000       0.013227
		H       5.664145      -1.884088      -0.281487
		H       4.548644      -2.940002      -0.319892
		O       4.761345       2.051918       0.013402
		H       5.667201       1.879546      -0.281268
		H       4.553427       2.937281      -0.319677
		p+       1.006426       0.001410      -0.003383
 20
 step 2 xyz coordinates optimized in h13o6_2_scan.log
		O       0.000000       0.000000       0.000000
		H       1.031044       0.003377      -0.008660
		H      -0.348171       0.814117       0.455553
		H      -0.342443      -0.812321       0.462595
		O       2.842040       0.000123      -0.006972
		H       3.417240      -0.806953       0.003893
		H       3.420268       0.805029       0.004041
		O      -1.726361      -2.004286       0.328127
		H      -2.588564      -1.902141       0.755817
		H      -1.476007      -2.913485       0.555399
		O      -1.738948       1.993720       0.323163
		H      -2.600652       1.885876       0.750444
		H      -1.495121       2.905065       0.548965
		O       4.696225      -2.129151       0.030977
		H       5.609451      -1.999053      -0.255627
		H       4.477103      -2.991712      -0.347497
		O       4.704280       2.122388       0.031383
		H       5.617045       1.988833      -0.255104
		H       4.488518       2.985833      -0.347004
		p+       1.031044       0.003377      -0.008660
 20
 step 3 xyz coordinates optimized in h13o6_2_scan.log
		O       0.000000       0.000000       0.000000
		H       1.038692       0.006865      -0.019232
		H      -0.334857       0.819287       0.480831
		H      -0.322896      -0.818384       0.489837
		O       2.849677       0.000311      -0.015877
		H       3.410485      -0.815957       0.006004
		H       3.416588       0.812342       0.006427
		O      -1.456600      -1.998282       0.582517
		H      -2.278888      -1.948020       1.095952
		H      -1.159089      -2.913713       0.721937
		O      -1.482800       1.981725       0.569902
		H      -2.305284       1.921653       1.081928
		H      -1.198472       2.901840       0.705931
		O       4.602792      -2.177861       0.058313
		H       5.540615      -2.066691      -0.158250
		H       4.378334      -3.023132      -0.360750
		O       4.619099       2.165242       0.059399
		H       5.555970       2.047307      -0.157698
		H       4.400756       3.012673      -0.358534
		p+       1.038692       0.006865      -0.019232
 20
 step 4 xyz coordinates optimized in h13o6_2_scan.log
		O       0.000000       0.000000       0.000000
		H       1.022752       0.010484      -0.029949
		H      -0.334546       0.837733       0.485395
		H      -0.315093      -0.837343       0.498166
		O       2.833713       0.000414      -0.023585
		H       3.392861      -0.806227       0.007060
		H       3.402022       0.800610       0.007848
		O      -1.248309      -2.053665       0.778351
		H      -2.027211      -2.031746       1.359955
		H      -0.895125      -2.955507       0.872074
		O      -1.292321       2.035022       0.753651
		H      -2.073014       2.000933       1.332224
		H      -0.959155       2.945118       0.840642
		O       4.534324      -2.188115       0.077883
		H       5.488969      -2.069857      -0.052260
		H       4.325751      -3.012393      -0.390984
		O       4.559008       2.169372       0.079823
		H       5.511952       2.041117      -0.053250
		H       4.358192       2.997688      -0.385301
		p+       1.022752       0.010484      -0.029949
 20
 step 5 xyz coordinates optimized in h13o6_2_scan.log
		O       0.000000       0.000000       0.000000
		H       0.996401       0.014879      -0.043203
		H      -0.340084       0.858748       0.472347
		H      -0.310104      -0.855517       0.497586
		O       2.807307       0.000604      -0.031417
		H       3.373782      -0.792653       0.007828
		H       3.386494       0.784592       0.009383
		O      -1.017114      -2.124912       0.995691
		H      -1.728829      -2.114778       1.657210
		H      -0.585173      -2.992079       1.066989
		O      -1.088191       2.116350       0.936780
		H      -1.805467       2.098732       1.592088
		H      -0.685106       2.998556       0.990341
		O       4.476726      -2.204947       0.093563
		H       5.436004      -2.070444       0.152433
		H       4.359115      -2.952517      -0.513669
		O       4.511587       2.178817       0.097455
		H       5.469434       2.029979       0.143504
		H       4.397463       2.935739      -0.498745
		p+      -0.340084       0.858748       0.472347
 20
 step 6 xyz coordinates optimized in h13o6_2_scan.log
		O       0.000000       0.000000       0.000000
		H       0.994027       0.017903      -0.052015
		H      -0.341042       0.865875       0.455150
		H      -0.302845      -0.854050       0.501949
		O       2.804854       0.001687      -0.032980
		H       3.374430      -0.792352       0.008543
		H       3.389520       0.784639       0.010704
		O      -0.849577      -2.117718       1.143528
		H      -1.502958      -2.103384       1.860356
		H      -0.367733      -2.956707       1.211195
		O      -0.942433       2.137303       1.029725
		H      -1.606184       2.132026       1.737076
		H      -0.497389       2.998515       1.059202
		O       4.443925      -2.243311       0.091588
		H       5.343961      -2.146190       0.438429
		H       4.532400      -2.824281      -0.679449
		O       4.486369       2.214437       0.097452
		H       5.394146       2.094892       0.415883
		H       4.561959       2.814194      -0.660414
		p+      -0.341042       0.865875       0.455150
 20
 step 7 xyz coordinates optimized in h13o6_2_scan.log
		O       0.000000       0.000000       0.000000
		H       0.994472       0.018170      -0.052226
		H      -0.341142       0.865708       0.453412
		H      -0.302243      -0.853495       0.501543
		O       2.805283       0.001910      -0.031774
		H       3.374805      -0.792478       0.008608
		H       3.390152       0.785032       0.010765
		O      -0.841701      -2.120785       1.152830
		H      -1.490603      -2.107284       1.873602
		H      -0.355880      -2.957550       1.218843
		O      -0.936699       2.142054       1.035337
		H      -1.597031       2.138745       1.745751
		H      -0.488444       3.001617       1.062224
		O       4.441374      -2.247568       0.088650
		H       5.333484      -2.157927       0.458109
		H       4.546654      -2.813073      -0.692127
		O       4.484738       2.218610       0.094592
		H       5.385373       2.105726       0.435831
		H       4.576716       2.802941      -0.673863
		p+      -0.341142       0.865708       0.453412
 20
 step 8 xyz coordinates optimized in h13o6_2_scan.log
		O       0.000000       0.000000       0.000000
		H       1.001587       0.019203      -0.051534
		H      -0.339035       0.853237       0.457542
		H      -0.299235      -0.850546       0.489685
		O       2.812336       0.003124      -0.025994
		H       3.378685      -0.795649       0.008893
		H       3.395546       0.789669       0.010751
		O      -0.857121      -2.150166       1.135874
		H      -1.531569      -2.156977       1.832318
		H      -0.339386      -2.964303       1.234607
		O      -0.956979       2.149319       1.056091
		H      -1.642199       2.151386       1.741908
		H      -0.480834       2.991129       1.127646
		O       4.432037      -2.268211       0.075731
		H       5.364213      -2.175220       0.327487
		H       4.433727      -2.884348      -0.673785
		O       4.480895       2.238531       0.081329
		H       5.416609       2.122666       0.309202
		H       4.477365       2.871338      -0.654130
		p+      -0.339035       0.853237       0.457542
 20
 step 9 xyz coordinates optimized in h13o6_2_scan.log
		O       0.000000       0.000000       0.000000
		H       1.001821       0.019617      -0.052041
		H      -0.338990       0.852931       0.456407
		H      -0.298254      -0.849607       0.490382
		O       2.812543       0.003644      -0.024601
		H       3.378524      -0.795502       0.009152
		H       3.395619       0.790418       0.010779
		O      -0.843442      -2.149174       1.149659
		H      -1.515981      -2.156970       1.847866
		H      -0.317546      -2.957400       1.253921
		O      -0.946066       2.150726       1.064991
		H      -1.630216       2.155023       1.751790
		H      -0.463020       2.988270       1.140203
		O       4.426110      -2.273224       0.071958
		H       5.351943      -2.188292       0.350040
		H       4.445287      -2.872045      -0.691720
		O       4.475924       2.244144       0.077059
		H       5.406071       2.135569       0.331356
		H       4.489294       2.859544      -0.673423
		p+      -0.338990       0.852931       0.456407
 20
 step 10 xyz coordinates optimized in h13o6_2_scan.log
		O       0.000000       0.000000       0.000000
		H       1.001786       0.019941      -0.051919
		H      -0.339264       0.853379       0.454968
		H      -0.297764      -0.848848       0.491657
		O       2.812492       0.004587      -0.023079
		H       3.378508      -0.794526       0.010125
		H       3.395222       0.791679       0.010233
		O      -0.835402      -2.147627       1.159541
		H      -1.507463      -2.155656       1.858195
		H      -0.305174      -2.952588       1.266991
		O      -0.940170       2.152549       1.067877
		H      -1.624978       2.159009       1.753993
		H      -0.453610       2.987950       1.144110
		O       4.423032      -2.274657       0.070152
		H       5.342635      -2.195296       0.369947
		H       4.459515      -2.857899      -0.705043
		O       4.471749       2.248570       0.071301
		H       5.394637       2.147589       0.354604
		H       4.505791       2.844383      -0.694604
		p+      -0.339264       0.853379       0.454968
 20
 step 11 xyz coordinates optimized in h13o6_2_scan.log
		O       0.000000       0.000000       0.000000
		H       1.001347       0.020674      -0.050940
		H      -0.339493       0.852545       0.453766
		H      -0.296343      -0.847197       0.493199
		O       2.811809       0.004564      -0.009853
		H       3.376104      -0.795969       0.003134
		H       3.394578       0.791616       0.012528
		O      -0.796222      -2.143586       1.198137
		H      -1.463143      -2.158133       1.901583
		H      -0.244051      -2.932341       1.313694
		O      -0.906445       2.154166       1.098719
		H      -1.596330       2.171168       1.779516
		H      -0.399474       2.976169       1.185623
		O       4.410841      -2.284143       0.018159
		H       5.214160      -2.296514       0.559763
		H       4.677381      -2.671178      -0.829366
		O       4.464419       2.254046       0.049304
		H       5.289180       2.226282       0.556618
		H       4.704306       2.675791      -0.789331
		p+      -0.339493       0.852545       0.453766
 20
 step 12 xyz coordinates optimized in h13o6_2_scan.log
		O       0.000000       0.000000       0.000000
		H       1.003420       0.022134      -0.042602
		H      -0.342569       0.841922       0.463538
		H      -0.298915      -0.851577       0.477225
		O       2.813166       0.005615       0.022719
		H       3.374299      -0.797143      -0.004115
		H       3.394600       0.794301       0.014760
		O      -0.788703      -2.162171       1.178658
		H      -1.468373      -2.202488       1.868542
		H      -0.211856      -2.931124       1.306693
		O      -0.901545       2.138151       1.143587
		H      -1.629078       2.165317       1.783353
		H      -0.365046       2.932169       1.291651
		O       4.399318      -2.289089      -0.068710
		H       5.121205      -2.400088       0.568492
		H       4.778011      -2.541053      -0.924884
		O       4.455313       2.262045      -0.008345
		H       5.193710       2.329268       0.615952
		H       4.818871       2.547301      -0.860657
		p+      -0.342569       0.841922       0.463538
 20
 step 13 xyz coordinates optimized in h13o6_2_scan.log
		O       0.000000       0.000000       0.000000
		H       1.005430       0.022316      -0.026762
		H      -0.349917       0.834035       0.467546
		H      -0.307828      -0.855120       0.460685
		O       2.813510       0.004995       0.074564
		H       3.371103      -0.796315      -0.013756
		H       3.392006       0.794260       0.016702
		O      -0.806692      -2.178044       1.147058
		H      -1.505226      -2.241113       1.816035
		H      -0.217080      -2.935695       1.284778
		O      -0.916072       2.126538       1.163730
		H      -1.704675       2.177292       1.724779
		H      -0.357231       2.885637       1.391308
		O       4.387519      -2.282517      -0.193127
		H       5.095680      -2.461686       0.444569
		H       4.781690      -2.448896      -1.063584
		O       4.441353       2.262846      -0.101074
		H       5.145434       2.408108       0.549872
		H       4.845353       2.456711      -0.961460
		p+       1.005430       0.022316      -0.026762
 20
 step 14 xyz coordinates optimized in h13o6_2_scan.log
		O       0.000000       0.000000       0.000000
		H       1.010216       0.019178       0.036294
		H      -0.378016       0.817821       0.460635
		H      -0.343521      -0.856690       0.417855
		O       2.805961      -0.000383       0.270044
		H       3.326837      -0.775233      -0.033875
		H       3.347814       0.778041       0.015747
		O      -0.893079      -2.204276       1.062155
		H      -1.649362      -2.328371       1.655445
		H      -0.275656      -2.930437       1.243414
		O      -0.984339       2.108850       1.170522
		H      -1.894824       2.298323       1.442757
		H      -0.411965       2.736899       1.638074
		O       4.268846      -2.199184      -0.609191
		H       4.962725      -2.593964      -0.056588
		H       4.660220      -2.111587      -1.493772
		O       4.308224       2.218621      -0.474113
		H       4.933744       2.638258       0.139754
		H       4.776993       2.147902      -1.322610
		p+       1.010216       0.019178       0.036294
 20
 step 15 xyz coordinates optimized in h13o6_2_scan.log
		O       0.000000       0.000000       0.000000
		H       1.011432       0.021571       0.042606
		H      -0.383787       0.814943       0.462956
		H      -0.345014      -0.859518       0.413326
		O       2.805196       0.007626       0.291478
		H       3.306891      -0.775813      -0.028600
		H       3.326116       0.790370       0.001400
		O      -0.893742      -2.207446       1.050340
		H      -1.655609      -2.344157       1.633659
		H      -0.273736      -2.932367       1.228206
		O      -0.994855       2.096988       1.176569
		H      -1.916084       2.345305       1.346017
		H      -0.437616       2.688132       1.706392
		O       4.211976      -2.212221      -0.631469
		H       4.920660      -2.614918      -0.103632
		H       4.572360      -2.132144      -1.529915
		O       4.243064       2.234549      -0.556071
		H       4.840298       2.714739       0.041327
		H       4.733509       2.130600      -1.388654
		p+       1.011432       0.021571       0.042606
 20
 step 16 xyz coordinates optimized in h13o6_2_scan.log
		O       0.000000       0.000000       0.000000
		H       1.011335       0.022247       0.042465
		H      -0.384366       0.814214       0.464862
		H      -0.344170      -0.860732       0.412821
		O       2.805039       0.009428       0.291829
		H       3.303238      -0.777113      -0.026235
		H       3.322456       0.793158      -0.002083
		O      -0.890109      -2.208406       1.048865
		H      -1.651422      -2.346045       1.632667
		H      -0.270098      -2.933840       1.224442
		O      -0.994304       2.092691       1.181590
		H      -1.916015       2.349960       1.335157
		H      -0.440087       2.678883       1.720006
		O       4.201816      -2.219550      -0.625290
		H       4.912205      -2.620265      -0.098352
		H       4.557840      -2.147400      -1.526100
		O       4.232479       2.239364      -0.566754
		H       4.824299       2.727009       0.029891
		H       4.727722       2.133391      -1.396115
		p+       1.011335       0.022247       0.042465
 20
 step 17 xyz coordinates optimized in h13o6_2_scan.log
		O       0.000000       0.000000       0.000000
		H       1.009657       0.022821       0.050771
		H      -0.388843       0.817490       0.463262
		H      -0.345912      -0.860353       0.421412
		O       2.800415       0.014440       0.320650
		H       3.269589      -0.773766      -0.033340
		H       3.283201       0.813401       0.010723
		O      -0.888427      -2.193244       1.064217
		H      -1.664464      -2.322380       1.630468
		H      -0.270230      -2.912360       1.269107
		O      -0.994157       2.084456       1.174767
		H      -1.915982       2.367698       1.273584
		H      -0.450395       2.685901       1.706475
		O       4.119840      -2.218069      -0.701528
		H       4.851428      -2.629185      -0.213394
		H       4.430400      -2.150747      -1.619052
		O       4.133184       2.282906      -0.594557
		H       4.751503       2.768373      -0.024220
		H       4.584674       2.203086      -1.450718
		p+       1.009657       0.022821       0.050771
 20
 step 18 xyz coordinates optimized in h13o6_2_scan.log
		O       0.000000       0.000000       0.000000
		H       1.010156       0.021510       0.059277
		H      -0.391417       0.817428       0.462921
		H      -0.350562      -0.858979       0.422454
		O       2.799251       0.018681       0.340084
		H       3.253195      -0.768648      -0.037920
		H       3.260722       0.817429      -0.004576
		O      -0.896822      -2.186204       1.067851
		H      -1.684892      -2.318841       1.616240
		H      -0.275141      -2.894834       1.297134
		O      -0.995736       2.079502       1.177693
		H      -1.905733       2.413777       1.205688
		H      -0.460372       2.660273       1.739978
		O       4.075804      -2.209457      -0.748577
		H       4.826077      -2.622416      -0.291574
		H       4.350707      -2.140475      -1.677125
		O       4.067934       2.282341      -0.678090
		H       4.698904       2.789855      -0.142037
		H       4.491618       2.188785      -1.546707
		p+       1.010156       0.021510       0.059277
 20
 step 19 xyz coordinates optimized in h13o6_2_scan.log
		O       0.000000       0.000000       0.000000
		H       1.010153       0.021578       0.058596
		H      -0.391416       0.817430       0.462921
		H      -0.350298      -0.859043       0.422359
		O       2.799406       0.018146       0.338389
		H       3.254569      -0.769344      -0.037633
		H       3.262765       0.816927      -0.003399
		O      -0.896482      -2.186688       1.067474
		H      -1.683680      -2.318940       1.617219
		H      -0.275170      -2.896259       1.294848
		O      -0.995740       2.079498       1.177692
		H      -1.762240       2.619024       0.928827
		H      -0.444132       2.646444       1.738388
		O       4.079379      -2.210571      -0.744770
		H       4.828106      -2.623451      -0.285146
		H       4.357259      -2.141790      -1.672461
		O       4.073713       2.282274      -0.671283
		H       4.703726       2.787931      -0.132338
		H       4.499704       2.189874      -1.538917
		p+       1.010153       0.021578       0.058596
 20
 step 20 xyz coordinates optimized in h13o6_2_scan.log
		O       0.000000       0.000000       0.000000
		H       1.009987       0.021561       0.059161
		H      -0.391415       0.817461       0.463140
		H      -0.350056      -0.859284       0.422561
		O       2.798884       0.017902       0.341218
		H       3.250431      -0.770050      -0.038104
		H       3.259029       0.816956      -0.004099
		O      -0.895369      -2.186205       1.067702
		H      -1.684638      -2.317879       1.614636
		H      -0.273584      -2.893666       1.300298
		O      -0.995738       2.079455       1.176710
		H      -1.746092       2.632681       0.907866
		H      -0.443141       2.643443       1.739457
		O       4.068760      -2.212348      -0.751113
		H       4.818944      -2.626437      -0.295074
		H       4.341931      -2.145090      -1.680241
		O       4.063700       2.282988      -0.678821
		H       4.695660       2.789650      -0.143253
		H       4.485613       2.191190      -1.548417
		p+       1.009987       0.021561       0.059161
 20
 step 21 xyz coordinates optimized in h13o6_2_scan.log
		O       0.000000       0.000000       0.000000
		H       1.009903       0.021626       0.059363
		H      -0.391496       0.817590       0.463105
		H      -0.350003      -0.859310       0.422810
		O       2.798710       0.018008       0.341991
		H       3.249898      -0.770127      -0.037282
		H       3.258526       0.817200      -0.003311
		O      -0.894991      -2.185800       1.068193
		H      -1.684637      -2.316746       1.614764
		H      -0.273298      -2.892875       1.302177
		O      -0.995610       2.079147       1.176809
		H      -1.734822       2.641301       0.895245
		H      -0.440614       2.642415       1.737959
		O       4.067637      -2.212876      -0.750226
		H       4.817738      -2.626829      -0.293976
		H       4.340647      -2.146556      -1.679437
		O       4.062606       2.283656      -0.678086
		H       4.695088       2.789623      -0.142537
		H       4.483826       2.192736      -1.548074
		p+       1.009903       0.021626       0.059363
 20
 step 22 xyz coordinates optimized in h13o6_2_scan.log
		O       0.000000       0.000000       0.000000
		H       1.008988       0.022222       0.061555
		H      -0.392137       0.818716       0.463212
		H      -0.349800      -0.859939       0.424494
		O       2.796880       0.019320       0.349922
		H       3.244464      -0.769523      -0.031009
		H       3.252753       0.819427       0.002964
		O      -0.891896      -2.182309       1.070848
		H      -1.682738      -2.306447       1.617447
		H      -0.272323      -2.889427       1.310173
		O      -0.994910       2.077134       1.175396
		H      -1.734196       2.635813       0.882074
		H      -0.440055       2.646229       1.731246
		O       4.056140      -2.214492      -0.747170
		H       4.807162      -2.626947      -0.291494
		H       4.324650      -2.155767      -1.677935
		O       4.049533       2.288794      -0.675755
		H       4.686660       2.790142      -0.141860
		H       4.463311       2.204965      -1.549716
		p+       1.008988       0.022222       0.061555
 20
 step 23 xyz coordinates optimized in h13o6_2_scan.log
		O       0.000000       0.000000       0.000000
		H       1.008988       0.022222       0.061552
		H      -0.392138       0.818713       0.463210
		H      -0.349800      -0.859940       0.424494
		O       2.796874       0.019321       0.349951
		H       3.244448      -0.769523      -0.031017
		H       3.252715       0.819427       0.002950
		O      -0.891894      -2.182304       1.070846
		H      -1.682766      -2.306298       1.617443
		H      -0.272385      -2.889454       1.310251
		O      -0.994908       2.077141       1.175401
		H      -1.734203       2.635737       0.881823
		H      -0.440060       2.646366       1.731130
		O       4.056130      -2.214491      -0.747181
		H       4.807187      -2.626848      -0.291477
		H       4.324572      -2.155927      -1.677970
		O       4.049524       2.288821      -0.675776
		H       4.686777       2.789993      -0.141865
		H       4.463175       2.205130      -1.549803
		p+       1.008988       0.022222       0.061552
 20
 step 24 xyz coordinates optimized in h13o6_2_scan.log
		O       0.000000       0.000000       0.000000
		H       1.008988       0.022222       0.061549
		H      -0.392139       0.818710       0.463208
		H      -0.349800      -0.859941       0.424495
		O       2.796869       0.019322       0.349982
		H       3.244431      -0.769523      -0.031026
		H       3.252675       0.819427       0.002935
		O      -0.891893      -2.182299       1.070844
		H      -1.682794      -2.306143       1.617437
		H      -0.272449      -2.889481       1.310331
		O      -0.994905       2.077149       1.175406
		H      -1.734210       2.635659       0.881562
		H      -0.440066       2.646509       1.731009
		O       4.056119      -2.214489      -0.747193
		H       4.807213      -2.626745      -0.291460
		H       4.324490      -2.156092      -1.678006
		O       4.049514       2.288849      -0.675797
		H       4.686898       2.789839      -0.141869
		H       4.463033       2.205302      -1.549894
		p+       1.008988       0.022222       0.061549
 20
 step 25 xyz coordinates optimized in h13o6_2_scan.log
		O       0.000000       0.000000       0.000000
		H       1.008991       0.022220       0.061545
		H      -0.392140       0.818708       0.463212
		H      -0.349800      -0.859942       0.424495
		O       2.796867       0.019320       0.350012
		H       3.244423      -0.769524      -0.031036
		H       3.252637       0.819426       0.002922
		O      -0.891891      -2.182292       1.070839
		H      -1.682822      -2.305987       1.617431
		H      -0.272514      -2.889508       1.310407
		O      -0.994902       2.077156       1.175396
		H      -1.734214       2.635577       0.881277
		H      -0.440074       2.646657       1.730871
		O       4.056123      -2.214482      -0.747210
		H       4.807254      -2.626636      -0.291447
		H       4.324425      -2.156249      -1.678046
		O       4.049504       2.288878      -0.675814
		H       4.687018       2.789686      -0.141867
		H       4.462891       2.205477      -1.549979
		p+       1.008991       0.022220       0.061545
 20
 step 26 xyz coordinates optimized in h13o6_2_scan.log
		O       0.000000       0.000000       0.000000
		H       1.008998       0.022220       0.061536
		H      -0.392141       0.818707       0.463236
		H      -0.349800      -0.859948       0.424486
		O       2.796870       0.019325       0.350028
		H       3.244421      -0.769527      -0.031068
		H       3.252581       0.819407       0.002916
		O      -0.891886      -2.182290       1.070810
		H      -1.682845      -2.305853       1.617400
		H      -0.272572      -2.889544       1.310440
		O      -0.994902       2.077158       1.175364
		H      -1.734216       2.635490       0.880968
		H      -0.440087       2.646803       1.730712
		O       4.056109      -2.214483      -0.747303
		H       4.807288      -2.626555      -0.291542
		H       4.324326      -2.156376      -1.678166
		O       4.049410       2.288899      -0.675865
		H       4.687040       2.789571      -0.141930
		H       4.462653       2.205634      -1.550104
		p+       1.008998       0.022220       0.061536
 20
 step 27 xyz coordinates optimized in h13o6_2_scan.log
		O       0.000000       0.000000       0.000000
		H       1.009007       0.022221       0.061533
		H      -0.392141       0.818707       0.463240
		H      -0.349800      -0.859950       0.424488
		O       2.796873       0.019335       0.350061
		H       3.244422      -0.769530      -0.031070
		H       3.252525       0.819387       0.002917
		O      -0.891884      -2.182277       1.070804
		H      -1.682875      -2.305701       1.617387
		H      -0.272634      -2.889565       1.310509
		O      -0.994901       2.077159       1.175354
		H      -1.734221       2.635404       0.880696
		H      -0.440095       2.646939       1.730577
		O       4.056102      -2.214495      -0.747342
		H       4.807327      -2.626475      -0.291572
		H       4.324236      -2.156529      -1.678232
		O       4.049320       2.288910      -0.675928
		H       4.687067       2.789451      -0.142009
		H       4.462423       2.205769      -1.550239
		p+       1.009007       0.022221       0.061533
 20
 step 28 xyz coordinates optimized in h13o6_2_scan.log
		O       0.000000       0.000000       0.000000
		H       1.009017       0.022224       0.061528
		H      -0.392141       0.818706       0.463242
		H      -0.349800      -0.859952       0.424489
		O       2.796877       0.019345       0.350092
		H       3.244422      -0.769532      -0.031073
		H       3.252479       0.819364       0.002916
		O      -0.891882      -2.182267       1.070799
		H      -1.682906      -2.305552       1.617376
		H      -0.272698      -2.889590       1.310579
		O      -0.994901       2.077160       1.175349
		H      -1.734228       2.635319       0.880433
		H      -0.440103       2.647075       1.730449
		O       4.056098      -2.214507      -0.747374
		H       4.807367      -2.626395      -0.291590
		H       4.324155      -2.156686      -1.678290