 8
 step 0 xyz coordinates optimized in h5o2_2cc_scan.log
		O       0.000000       0.000000       0.000000
		H       0.989000       0.000000       0.000000
		H      -0.368000       0.821000       0.411000
		H      -0.368000      -0.818000       0.417000
		O       2.800000       0.000000       0.000000
		H       3.400000      -0.763000       0.000000
		H       3.400000       0.763000       0.000000
		p+       0.000000       0.000000       0.000000
 8
 step 1 xyz coordinates optimized in h5o2_2cc_scan.log
		O       0.000000       0.000000       0.000000
		H       0.989000       0.000617      -0.001043
		H      -0.364557       0.812090       0.419961
		H      -0.363505      -0.809195       0.426417
		O       2.800000       0.000000       0.000000
		H       3.379976      -0.773168      -0.092313
		H       3.380546       0.772787      -0.091917
		p+       0.000000       0.000000       0.000000
 8
 step 2 xyz coordinates optimized in h5o2_2cc_scan.log
		O       0.000000       0.000000       0.000000
		H       0.989007      -0.002301       0.003341
		H      -0.356946       0.802997       0.434417
		H      -0.360416      -0.797439       0.441705
		O       2.800000       0.000000       0.000000
		H       3.248689      -0.736462      -0.443007
		H       3.246859       0.738496      -0.441465
		p+       0.000000       0.000000       0.000000
 8
 step 3 xyz coordinates optimized in h5o2_2cc_scan.log
		O       0.000000       0.000000       0.000000
		H       0.989003       0.000139      -0.000491
		H      -0.361095       0.807507       0.427128
		H      -0.360709      -0.803757       0.434456
		O       2.800000       0.000000       0.000000
		H       3.336167      -0.764051      -0.264743
		H       3.336325       0.764319      -0.263645
		p+       0.000000       0.000000       0.000000
 8
 step 4 xyz coordinates optimized in h5o2_2cc_scan.log
		O       0.000000       0.000000       0.000000
		H       0.989003       0.001654      -0.003094
		H      -0.360283       0.808840       0.429160
		H      -0.357371      -0.805512       0.437772
		O       2.800000       0.000000       0.000000
		H       3.300153      -0.768950      -0.317971
		H       3.301684       0.768878      -0.315719
		p+       0.000000       0.000000       0.000000
 8
 step 5 xyz coordinates optimized in h5o2_2cc_scan.log
		O       0.000000       0.000000       0.000000
		H       0.989026       0.005043      -0.008676
		H      -0.361653       0.811280       0.427202
		H      -0.352912      -0.809203       0.438322
		O       2.800000       0.000000       0.000000
		H       3.298408      -0.781121      -0.291897
		H       3.302995       0.779850      -0.287391
		p+       0.000000       0.000000       0.000000
 8
 step 6 xyz coordinates optimized in h5o2_2cc_scan.log
		O       0.000000       0.000000       0.000000
		H       0.989054       0.006915      -0.011883
		H      -0.360205       0.810154       0.430244
		H      -0.347993      -0.807797       0.444502
		O       2.800000       0.000000       0.000000
		H       3.250663      -0.773428      -0.377298
		H       3.256890       0.773423      -0.369741
		p+       0.000000       0.000000       0.000000
 8
 step 7 xyz coordinates optimized in h5o2_2cc_scan.log
		O       0.000000       0.000000       0.000000
		H       0.989067       0.008024      -0.013295
		H      -0.361497       0.810370       0.427646
		H      -0.347255      -0.807489       0.444581
		O       2.800000       0.000000       0.000000
		H       3.275657      -0.775736      -0.339953
		H       3.282820       0.775796      -0.329553
		p+       0.000000       0.000000       0.000000
 8
 step 8 xyz coordinates optimized in h5o2_2cc_scan.log
		O       0.000000       0.000000       0.000000
		H       0.989215       0.014627      -0.023929
		H      -0.363372       0.811373       0.422784
		H      -0.336612      -0.805435       0.455113
		O       2.800000       0.000000       0.000000
		H       3.281681      -0.774219      -0.334826
		H       3.294526       0.777150      -0.308272
		p+       0.000000       0.000000       0.000000
 8
 step 9 xyz coordinates optimized in h5o2_2cc_scan.log
		O       0.000000       0.000000       0.000000
		H       0.991775       0.046565      -0.088784
		H      -0.363181       0.806505       0.427437
		H      -0.272322      -0.804791       0.494014
		O       2.800000       0.000000       0.000000
		H       3.266019      -0.772456      -0.358441
		H       3.305990       0.773227      -0.297006
		p+       0.000000       0.000000       0.000000
 8
 step 10 xyz coordinates optimized in h5o2_2cc_scan.log
		O       0.000000       0.000000       0.000000
		H       0.994782       0.065089      -0.129156
		H      -0.357094       0.794193       0.457164
		H      -0.233665      -0.817749       0.494972
		O       2.800000       0.000000       0.000000
		H       3.268643      -0.787560      -0.320810
		H       3.326572       0.760573      -0.293763
		p+       0.994782       0.065089      -0.129156
 8
 step 11 xyz coordinates optimized in h5o2_2cc_scan.log
		O       0.000000       0.000000       0.000000
		H       0.996321       0.060667      -0.150961
		H      -0.347767       0.815900       0.425625
		H      -0.219260      -0.787403       0.547521
		O       2.800000       0.000000       0.000000
		H       3.277115      -0.756169      -0.380217
		H       3.320765       0.781828      -0.248242
		p+       0.996321       0.060667      -0.150961
 8
 step 12 xyz coordinates optimized in h5o2_2cc_scan.log
		O       0.000000       0.000000       0.000000
		H       0.998362       0.051409      -0.176605
		H      -0.337741       0.842879       0.380457
		H      -0.200413      -0.747767       0.608421
		O       2.800000       0.000000       0.000000
		H       3.288447      -0.715031      -0.441565
		H       3.310502       0.808065      -0.176954
		p+       0.998362       0.051409      -0.176605
 8
 step 13 xyz coordinates optimized in h5o2_2cc_scan.log
		O       0.000000       0.000000       0.000000
		H       0.998459       0.045917      -0.179082
		H      -0.338533       0.854505       0.352975
		H      -0.199094      -0.728553       0.631930
		O       2.800000       0.000000       0.000000
		H       3.295682      -0.694648      -0.465556
		H       3.308946       0.816687      -0.137696
		p+       0.998459       0.045917      -0.179082
 8
 step 14 xyz coordinates optimized in h5o2_2cc_scan.log
		O       0.000000       0.000000       0.000000
		H       0.998209       0.035665      -0.178899
		H      -0.345035       0.875845       0.288494
		H      -0.199317      -0.685674       0.678598
		O       2.800000       0.000000       0.000000
		H       3.306241      -0.648944      -0.517150
		H       3.306262       0.827892      -0.052876
		p+       0.998209       0.035665      -0.178899
 8
 step 15 xyz coordinates optimized in h5o2_2cc_scan.log
		O       0.000000       0.000000       0.000000
		H       0.997851       0.033524      -0.175687
		H      -0.351622       0.882932       0.256775
		H      -0.200685      -0.665983       0.697584
		O       2.800000       0.000000       0.000000
		H       3.308631      -0.629090      -0.538604
		H       3.308825       0.827637      -0.013245
		p+       0.997851       0.033524      -0.175687
 8
 step 16 xyz coordinates optimized in h5o2_2cc_scan.log
		O       0.000000       0.000000       0.000000
		H       0.997335       0.034553      -0.170100
		H      -0.363285       0.888873       0.216104
		H      -0.201560      -0.641329       0.720039
		O       2.800000       0.000000       0.000000
		H       3.307610      -0.605596      -0.565405
		H       3.315241       0.822640       0.034753
		p+       0.997335       0.034553      -0.170100
 8
 step 17 xyz coordinates optimized in h5o2_2cc_scan.log
		O       0.000000       0.000000       0.000000
		H       0.996865       0.040337      -0.163725
		H      -0.377540       0.890603       0.180897
		H      -0.200842      -0.620753       0.737953
		O       2.800000       0.000000       0.000000
		H       3.302674      -0.587568      -0.588020
		H       3.324666       0.813751       0.073318
		p+       0.996865       0.040337      -0.163725
 8
 step 18 xyz coordinates optimized in h5o2_2cc_scan.log
		O       0.000000       0.000000       0.000000
		H       0.996487       0.052337      -0.155978
		H      -0.396390       0.888259       0.148275
		H      -0.197857      -0.602840       0.753321
		O       2.800000       0.000000       0.000000
		H       3.293184      -0.573667      -0.609041
		H       3.337659       0.801303       0.105353
		p+       0.996487       0.052337      -0.155978
 8
 step 19 xyz coordinates optimized in h5o2_2cc_scan.log
		O       0.000000       0.000000       0.000000
		H       0.996379       0.070159      -0.147507
		H      -0.417412       0.881712       0.127574
		H      -0.192599      -0.593862       0.761638
		O       2.800000       0.000000       0.000000
		H       3.280046      -0.569356      -0.623175
		H       3.351776       0.789247       0.120462
		p+       0.996379       0.070159      -0.147507
 8
 step 20 xyz coordinates optimized in h5o2_2cc_scan.log
		O       0.000000       0.000000       0.000000
		H       0.996691       0.091594      -0.139338
		H      -0.437443       0.872259       0.125441
		H      -0.185015      -0.597819       0.760339
		O       2.800000       0.000000       0.000000
		H       3.265031      -0.577210      -0.627332
		H       3.363437       0.782187       0.112233
		p+       0.996691       0.091594      -0.139338
 8
 step 21 xyz coordinates optimized in h5o2_2cc_scan.log
		O       0.000000       0.000000       0.000000
		H       0.997861       0.113159      -0.138639
		H      -0.467150       0.863724       0.058647
		H      -0.170460      -0.545278       0.802113
		O       2.800000       0.000000       0.000000
		H       3.255525      -0.522984      -0.679761
		H       3.371088       0.764707       0.176037
		p+       0.997861       0.113159      -0.138639
 8
 step 22 xyz coordinates optimized in h5o2_2cc_scan.log
		O       0.000000       0.000000       0.000000
		H       0.998358       0.132902      -0.127093
		H      -0.478495       0.854609       0.094725
		H      -0.167342      -0.579763       0.778224
		O       2.800000       0.000000       0.000000
		H       3.245142      -0.560565      -0.656831
		H       3.376627       0.771061       0.126372
		p+       0.998358       0.132902      -0.127093
 8
 step 23 xyz coordinates optimized in h5o2_2cc_scan.log
		O       0.000000       0.000000       0.000000
		H       0.998665       0.133882      -0.130311
		H      -0.483051       0.854460       0.070843
		H      -0.164613      -0.558564       0.794241
		O       2.800000       0.000000       0.000000
		H       3.249901      -0.535680      -0.674343
		H       3.371979       0.770127       0.151987
		p+       0.998665       0.133882      -0.130311
 8
 step 24 xyz coordinates optimized in h5o2_2cc_scan.log
		O       0.000000       0.000000       0.000000
		H       0.998937       0.135141      -0.132785
		H      -0.484551       0.853872       0.069279
		H      -0.161558      -0.555852       0.796878
		O       2.800000       0.000000       0.000000
		H       3.257025      -0.529772      -0.674442
		H       3.363829       0.775948       0.154147
		p+       0.998937       0.135141      -0.132785
 8
 step 25 xyz coordinates optimized in h5o2_2cc_scan.log
		O       0.000000       0.000000       0.000000
		H       0.998971       0.133035      -0.135379
		H      -0.481825       0.854730       0.077258
		H      -0.160172      -0.561393       0.793303
		O       2.800000       0.000000       0.000000
		H       3.264603      -0.533815      -0.666004
		H       3.356860       0.782128       0.148168
		p+       0.998971       0.133035      -0.135379
 8
 step 26 xyz coordinates optimized in h5o2_2cc_scan.log
		O       0.000000       0.000000       0.000000
		H       0.998909       0.130868      -0.136643
		H      -0.480543       0.855584       0.074898
		H      -0.160469      -0.559338       0.794670
		O       2.800000       0.000000       0.000000
		H       3.267474      -0.531643      -0.665603
		H       3.355550       0.782034       0.152826
		p+       0.998909       0.130868      -0.136643
 8
 step 27 xyz coordinates optimized in h5o2_2cc_scan.log
		O       0.000000       0.000000       0.000000
		H       0.998857       0.130344      -0.136459
		H      -0.479774       0.855778       0.077307
		H      -0.160946      -0.561534       0.793004
		O       2.800000       0.000000       0.000000
		H       3.267723      -0.533954      -0.663540
		H       3.355283       0.782674       0.150330
		p+       0.998857       0.130344      -0.136459
 8
 step 28 xyz coordinates optimized in h5o2_2cc_scan.log
		O       0.000000       0.000000       0.000000
		H       1.008691       0.128905      -0.134922
		H      -0.473182       0.856789       0.077455
		H      -0.158844      -0.561668       0.792368
		O       2.800000       0.000000       0.000000
		H       3.263038      -0.534162      -0.663324
		H       3.350425       0.782787       0.150117
		p+       1.008691       0.128905      -0.134922
 8
 step 29 xyz coordinates optimized in h5o2_2cc_scan.log
		O       0.000000       0.000000       0.000000
		H       1.006910       0.113827      -0.124427
		H      -0.462978       0.863594       0.084866
		H      -0.181265      -0.568757       0.782702
		O       2.800000       0.000000       0.000000
		H       3.263303      -0.537479      -0.663573
		H       3.350376       0.788719       0.135331
		p+       1.006910       0.113827      -0.124427
 8
 step 30 xyz coordinates optimized in h5o2_2cc_scan.log
		O       0.000000       0.000000       0.000000
		H       1.006419       0.110685      -0.120096
		H      -0.463372       0.865301       0.069156
		H      -0.188196      -0.558335       0.789012
		O       2.800000       0.000000       0.000000
		H       3.267041      -0.525353      -0.670982
		H       3.349140       0.786852       0.151824
		p+       1.006419       0.110685      -0.120096
 8
 step 31 xyz coordinates optimized in h5o2_2cc_scan.log
		O       0.000000       0.000000       0.000000
		H       1.006190       0.110810      -0.116514
		H      -0.462190       0.865367       0.076933
		H      -0.191136      -0.566050       0.782905
		O       2.800000       0.000000       0.000000
		H       3.265410      -0.532861      -0.666114
		H       3.348927       0.788934       0.140985
		p+       1.006190       0.110810      -0.116514
 8
 step 32 xyz coordinates optimized in h5o2_2cc_scan.log
		O       0.000000       0.000000       0.000000
		H       1.006133       0.111127      -0.115327
		H      -0.462750       0.865282       0.074431
		H      -0.191929      -0.564663       0.783735
		O       2.800000       0.000000       0.000000
		H       3.265225      -0.531386      -0.667353
		H       3.349203       0.788270       0.143213
		p+       1.006133       0.111127      -0.115327
 8
 step 33 xyz coordinates optimized in h5o2_2cc_scan.log
		O       0.000000       0.000000       0.000000
		H       1.016013       0.110345      -0.113591
		H      -0.456746       0.865908       0.074340
		H      -0.189400      -0.564724       0.783119
		O       2.800000       0.000000       0.000000
		H       3.260096      -0.531596      -0.667390
		H       3.344512       0.788219       0.142947
		p+       1.016013       0.110345      -0.113591
 8
 step 34 xyz coordinates optimized in h5o2_2cc_scan.log
		O       0.000000       0.000000       0.000000
		H       1.014298       0.098143      -0.096555
		H      -0.450687       0.871572       0.070337
		H      -0.216166      -0.565386       0.776495
		O       2.800000       0.000000       0.000000
		H       3.260078      -0.528027      -0.673386
		H       3.344532       0.792396       0.137331
		p+       1.014298       0.098143      -0.096555
 8
 step 35 xyz coordinates optimized in h5o2_2cc_scan.log
		O       0.000000       0.000000       0.000000
		H       1.013937       0.093941      -0.094048
		H      -0.447356       0.873435       0.071278
		H      -0.221245      -0.566622       0.774346
		O       2.800000       0.000000       0.000000
		H       3.262045      -0.529342      -0.671144
		H       3.343887       0.793029       0.136842
		p+       1.013937       0.093941      -0.094048
 8
 step 36 xyz coordinates optimized in h5o2_2cc_scan.log
		O       0.000000       0.000000       0.000000
		H       1.013812       0.093014      -0.092579
		H      -0.447105       0.874027       0.066088
		H      -0.223177      -0.562833       0.776609
		O       2.800000       0.000000       0.000000
		H       3.261839      -0.524811      -0.674849
		H       3.343594       0.792445       0.141410
		p+       1.013812       0.093014      -0.092579
 8
 step 37 xyz coordinates optimized in h5o2_2cc_scan.log
		O       0.000000       0.000000       0.000000
		H       1.013782       0.092469      -0.092535
		H      -0.446058       0.874156       0.071205
		H      -0.223417      -0.566773       0.773659
		O       2.800000       0.000000       0.000000
		H       3.261670      -0.528825      -0.671828
		H       3.343254       0.793665       0.135789
		p+       1.013782       0.092469      -0.092535
 8
 step 38 xyz coordinates optimized in h5o2_2cc_scan.log
		O       0.000000       0.000000       0.000000
		H       1.013772       0.092207      -0.092591
		H      -0.445708       0.874244       0.072334
		H      -0.223482      -0.567598       0.773039
		O       2.800000       0.000000       0.000000
		H       3.261616      -0.529582      -0.671271
		H       3.343062       0.794018       0.134498
		p+       1.013772       0.092207      -0.092591
 8
 step 39 xyz coordinates optimized in h5o2_2cc_scan.log
		O       0.000000       0.000000       0.000000
		H       1.023693       0.091063      -0.091703
		H      -0.439150       0.874905       0.074698
		H      -0.220261      -0.569190       0.771396
		O       2.800000       0.000000       0.000000
		H       3.256583      -0.531303      -0.670027
		H       3.337916       0.794656       0.131848
		p+       1.023693       0.091063      -0.091703
 8
 step 40 xyz coordinates optimized in h5o2_2cc_scan.log
		O       0.000000       0.000000       0.000000
		H       1.022225       0.076108      -0.075445
		H      -0.430674       0.881641       0.072035
		H      -0.247329      -0.569009       0.764681
		O       2.800000       0.000000       0.000000
		H       3.257710      -0.526314      -0.676442
		H       3.335505       0.800587       0.125000
		p+       1.022225       0.076108      -0.075445
 8
 step 41 xyz coordinates optimized in h5o2_2cc_scan.log
		O       0.000000       0.000000       0.000000
		H       1.022063       0.074455      -0.073244
		H      -0.429425       0.882395       0.070927
		H      -0.250582      -0.568529       0.763935
		O       2.800000       0.000000       0.000000
		H       3.258701      -0.527034      -0.675267
		H       3.336542       0.799608       0.127253
		p+       1.022063       0.074455      -0.073244
 8
 step 42 xyz coordinates optimized in h5o2_2cc_scan.log
		O       0.000000       0.000000       0.000000
		H       1.021992       0.073576      -0.072418
		H      -0.428375       0.882718       0.073177
		H      -0.251879      -0.570243       0.762188
		O       2.800000       0.000000       0.000000
		H       3.258147      -0.528385      -0.674617
		H       3.335850       0.800625       0.123954
		p+       1.021992       0.073576      -0.072418
 8
 step 43 xyz coordinates optimized in h5o2_2cc_scan.log
		O       0.000000       0.000000       0.000000
		H       1.021981       0.073496      -0.072200
		H      -0.428457       0.882771       0.071939
		H      -0.252194      -0.569424       0.762683
		O       2.800000       0.000000       0.000000
		H       3.258302      -0.527622      -0.675105
		H       3.336025       0.800287       0.125336
		p+       1.021981       0.073496      -0.072200
 8
 step 44 xyz coordinates optimized in h5o2_2cc_scan.log
		O       0.000000       0.000000       0.000000
		H       1.031926       0.072831      -0.071133
		H      -0.423001       0.883294       0.068508
		H      -0.248936      -0.566816       0.764069
		O       2.800000       0.000000       0.000000
		H       3.253573      -0.525157      -0.676890
		H       3.331382       0.799510       0.129023
		p+       1.031926       0.072831      -0.071133
 8
 step 45 xyz coordinates optimized in h5o2_2cc_scan.log
		O       0.000000       0.000000       0.000000
		H       1.030887       0.059159      -0.056448
		H      -0.415369       0.888715       0.071754
		H      -0.274430      -0.570569       0.753771
		O       2.800000       0.000000       0.000000
		H       3.253891      -0.524866      -0.680247
		H       3.328441       0.806785       0.115646
		p+       1.030887       0.059159      -0.056448
 8
 step 46 xyz coordinates optimized in h5o2_2cc_scan.log
		O       0.000000       0.000000       0.000000
		H       1.030847       0.058487      -0.055927
		H      -0.414468       0.889113       0.073889
		H      -0.274834      -0.571634       0.752964
		O       2.800000       0.000000       0.000000
		H       3.254300      -0.526485      -0.678774
		H       3.328645       0.806894       0.114214
		p+       1.030847       0.058487      -0.055927
 8
 step 47 xyz coordinates optimized in h5o2_2cc_scan.log
		O       0.000000       0.000000       0.000000
		H       1.040807       0.057710      -0.055148
		H      -0.408384       0.889662       0.074203
		H      -0.270926      -0.571402       0.752817
		O       2.800000       0.000000       0.000000
		H       3.249415      -0.526613      -0.678629
		H       3.323735       0.806863       0.114249
		p+       1.040807       0.057710      -0.055148
 8
 step 48 xyz coordinates optimized in h5o2_2cc_scan.log
		O       0.000000       0.000000       0.000000
		H       1.040175       0.047029      -0.043964
		H      -0.401525       0.894566       0.079032
		H      -0.289340      -0.572668       0.746781
		O       2.800000       0.000000       0.000000
		H       3.249782      -0.525907      -0.682093
		H       3.321428       0.812940       0.103385
		p+       1.040175       0.047029      -0.043964
 8
 step 49 xyz coordinates optimized in h5o2_2cc_scan.log
		O       0.000000       0.000000       0.000000
		H       1.040197       0.046631      -0.045295
		H      -0.401220       0.893491       0.091993
		H      -0.289261      -0.582729       0.738911
		O       2.800000       0.000000       0.000000
		H       3.249400      -0.534958      -0.675572
		H       3.319520       0.816212       0.087921
		p+       1.040197       0.046631      -0.045295
 8
 step 50 xyz coordinates optimized in h5o2_2cc_scan.log
		O       0.000000       0.000000       0.000000
		H       1.040205       0.047604      -0.044513
		H      -0.403067       0.893569       0.082228
		H      -0.289753      -0.576365       0.743648
		O       2.800000       0.000000       0.000000
		H       3.249854      -0.528858      -0.680027
		H       3.321156       0.813921       0.098515
		p+       1.040205       0.047604      -0.044513
 8
 step 51 xyz coordinates optimized in h5o2_2cc_scan.log
		O       0.000000       0.000000       0.000000
		H       1.050182       0.046994      -0.044027
		H      -0.397518       0.893875       0.081676
		H      -0.285747      -0.575896       0.743634
		O       2.800000       0.000000       0.000000
		H       3.244938      -0.528454      -0.680301
		H       3.316166       0.813863       0.099039
		p+       1.050182       0.046994      -0.044027
 8
 step 52 xyz coordinates optimized in h5o2_2cc_scan.log
		O       0.000000       0.000000       0.000000
		H       1.049760       0.038195      -0.034791
		H      -0.393789       0.896911       0.089080
		H      -0.302477      -0.580241       0.735387
		O       2.800000       0.000000       0.000000
		H       3.244954      -0.529994      -0.682446
		H       3.313306       0.820586       0.083855
		p+       1.049760       0.038195      -0.034791
 8
 step 53 xyz coordinates optimized in h5o2_2cc_scan.log
		O       0.000000       0.000000       0.000000
		H       1.049868       0.039315      -0.038721
		H      -0.393154       0.894557       0.113000
		H      -0.298271      -0.596952       0.723665
		O       2.800000       0.000000       0.000000
		H       3.244185      -0.546416      -0.670037
		H       3.310730       0.824523       0.058589
		p+       1.049868       0.039315      -0.038721
 8
 step 54 xyz coordinates optimized in h5o2_2cc_scan.log
		O       0.000000       0.000000       0.000000
		H       1.049793       0.038516      -0.035971
		H      -0.393607       0.896267       0.096278
		H      -0.301215      -0.585294       0.731901
		O       2.800000       0.000000       0.000000
		H       3.244740      -0.534928      -0.678772
		H       3.312520       0.821857       0.076315
		p+       1.049793       0.038516      -0.035971
 8
 step 55 xyz coordinates optimized in h5o2_2cc_scan.log
		O       0.000000       0.000000       0.000000
		H       1.049864       0.040506      -0.037261
		H      -0.395496       0.895769       0.093196
		H      -0.299026      -0.583040       0.734597
		O       2.800000       0.000000       0.000000
		H       3.244935      -0.532904      -0.680275
		H       3.313568       0.820849       0.080350
		p+       1.049864       0.040506      -0.037261
 8
 step 56 xyz coordinates optimized in h5o2_2cc_scan.log
		O       0.000000       0.000000       0.000000
		H       1.049849       0.040223      -0.036825
		H      -0.395449       0.896165       0.089452
		H      -0.299634      -0.580249       0.736552
		O       2.800000       0.000000       0.000000
		H       3.245129      -0.530130      -0.682304
		H       3.313864       0.820250       0.084354
		p+       1.049849       0.040223      -0.036825
 8
 step 57 xyz coordinates optimized in h5o2_2cc_scan.log
		O       0.000000       0.000000       0.000000
		H       1.049852       0.040138      -0.037060
		H      -0.395237       0.896068       0.091373
		H      -0.299473      -0.581590       0.735560
		O       2.800000       0.000000       0.000000
		H       3.245130      -0.531476      -0.681262
		H       3.313623       0.820609       0.082359
		p+       1.049852       0.040138      -0.037060
 8
 step 58 xyz coordinates optimized in h5o2_2cc_scan.log
		O       0.000000       0.000000       0.000000
		H       1.059834       0.039646      -0.036621
		H      -0.389601       0.896225       0.092687
		H      -0.295236      -0.582437       0.734589
		O       2.800000       0.000000       0.000000
		H       3.240068      -0.532423      -0.680581
		H       3.308468       0.820870       0.080895
		p+       1.059834       0.039646      -0.036621
 8
 step 59 xyz coordinates optimized in h5o2_2cc_scan.log
		O       0.000000       0.000000       0.000000
		H       1.059568       0.033063      -0.029881
		H      -0.387740       0.898248       0.100491
		H      -0.308557      -0.586451       0.727752
		O       2.800000       0.000000       0.000000
		H       3.240170      -0.533896      -0.682757
		H       3.305702       0.827101       0.066172
		p+       1.059568       0.033063      -0.029881
 8
 step 60 xyz coordinates optimized in h5o2_2cc_scan.log
		O       0.000000       0.000000       0.000000
		H       1.059668       0.034577      -0.033710
		H      -0.387600       0.895404       0.124120
		H      -0.304290      -0.603209       0.715797
		O       2.800000       0.000000       0.000000
		H       3.239114      -0.550329      -0.670384
		H       3.303311       0.830292       0.040998
		p+       1.059668       0.034577      -0.033710
 8
 step 61 xyz coordinates optimized in h5o2_2cc_scan.log
		O       0.000000       0.000000       0.000000
		H       1.059600       0.033521      -0.031084
		H      -0.387703       0.897419       0.107920
		H      -0.307221      -0.591744       0.724038
		O       2.800000       0.000000       0.000000
		H       3.239858      -0.539052      -0.678930
		H       3.304938       0.828192       0.058321
		p+       1.059600       0.033521      -0.031084
 8
 step 62 xyz coordinates optimized in h5o2_2cc_scan.log
		O       0.000000       0.000000       0.000000
		H       1.059657       0.035512      -0.032118
		H      -0.389659       0.897003       0.104256
		H      -0.305224      -0.589295       0.726882
		O       2.800000       0.000000       0.000000
		H       3.239978      -0.536829      -0.680620
		H       3.306192       0.827094       0.062917
		p+       1.059657       0.035512      -0.032118
 8
 step 63 xyz coordinates optimized in h5o2_2cc_scan.log
		O       0.000000       0.000000       0.000000
		H       1.059640       0.035125      -0.031543
		H      -0.389627       0.897575       0.099260
		H      -0.306002      -0.585636       0.729504
		O       2.800000       0.000000       0.000000
		H       3.240184      -0.533150      -0.683359
		H       3.306582       0.826421       0.068192
		p+       1.059640       0.035125      -0.031543
 8
 step 64 xyz coordinates optimized in h5o2_2cc_scan.log
		O       0.000000       0.000000       0.000000
		H       1.059644       0.034968      -0.031972
		H      -0.389254       0.897312       0.103092
		H      -0.305704      -0.588330       0.727462
		O       2.800000       0.000000       0.000000
		H       3.240193      -0.535862      -0.681237
		H       3.306110       0.827039       0.064206
		p+       1.059644       0.034968      -0.031972
 8
 step 65 xyz coordinates optimized in h5o2_2cc_scan.log
		O       0.000000       0.000000       0.000000
		H       1.059643       0.035105      -0.031755
		H      -0.389456       0.897348       0.101987
		H      -0.305803      -0.587610       0.728001
		O       2.800000       0.000000       0.000000
		H       3.240103      -0.535110      -0.681883
		H       3.306269       0.826856       0.065265
		p+       1.059643       0.035105      -0.031755
 8
 step 66 xyz coordinates optimized in h5o2_2cc_scan.log
		O       0.000000       0.000000       0.000000
		H       1.069630       0.034626      -0.031472